TITLE     = "throwing in rando &*^*( characters : 2.1s  4DPTV VORTEX DISTRIBUTION LINES"
VARIABLES = "x"
"y"
"z"
ZONE T="4DPTV yy_line"
 I=16, J=1, K=1, ZONETYPE=Ordered
 STRANDID=0, SOLUTIONTIME=0
 DATAPACKING=BLOCK
 DT=(SINGLE SINGLE SINGLE )
 1.197267994E-01 1.197267994E-01 1.197267994E-01 1.197267994E-01 1.197267994E-01
 1.197267994E-01 1.197267994E-01 1.197267994E-01 1.197267994E-01 1.197267994E-01
 1.197267994E-01 1.197267994E-01 1.197267994E-01 1.197267994E-01 1.197267994E-01
 1.197267994E-01
 1.961885951E-03 2.663538093E-03 3.365189070E-03 4.066841211E-03 4.768492188E-03
 5.470144097E-03 6.171796005E-03 6.873446982E-03 7.575098891E-03 8.276750334E-03
 8.978402242E-03 9.680053219E-03 1.038169954E-02 1.108335983E-02 1.178500988E-02
 1.248665992E-02
 -5.729646981E-02 -5.729646981E-02 -5.729646981E-02 -5.729646981E-02 -5.729646981E-02
 -5.729646981E-02 -5.729646981E-02 -5.729646981E-02 -5.729646981E-02 -5.729646981E-02
 -5.729646981E-02 -5.729646981E-02 -5.729646981E-02 -5.729646981E-02 -5.729646981E-02
 -5.729646981E-02
ZONE T="4DPTV zz_line"
 STRANDID=0, SOLUTIONTIME=0
 I=14, J=1, K=1, ZONETYPE=Ordered
 DATAPACKING=BLOCK
 DT=(SINGLE SINGLE SINGLE )
 1.197267994E-01 1.197267994E-01 1.197267994E-01 1.197267994E-01 1.197267994E-01
 1.197267994E-01 1.197267994E-01 1.197267994E-01 1.197267994E-01 1.197267994E-01
 1.197267994E-01 1.197267994E-01 1.197267994E-01 1.197267994E-01
 7.575098891E-03 7.575098891E-03 7.575098891E-03 7.575098891E-03 7.575098891E-03
 7.575098891E-03 7.575098891E-03 7.575098891E-03 7.575098891E-03 7.575098891E-03
 7.575098891E-03 7.575098891E-03 7.575098891E-03 7.575098891E-03
 -5.238490924E-02 -5.308656022E-02 -5.378821865E-02 -5.448986962E-02 -5.519152060E-02
 -5.589317158E-02 -5.659481883E-02 -5.729646981E-02 -5.799812078E-02 -5.869977921E-02
 -5.940143019E-02 -6.010308117E-02 -6.080472842E-02 -6.150637940E-02
